s 0.029290548 _1_ RTR  --- 0 message 32 [0 0 0 0] ------- [1:255 -1:255 32 0] 
s 1.119926192 _0_ RTR  --- 1 message 32 [0 0 0 0] ------- [0:255 -1:255 32 0] 
M 10.00000 0 (5.00, 2.00, 0.00), (20.00, 18.00), 1.00
s 10.000000000 _0_ AGT  --- 2 tcp 40 [0 0 0 0] ------- [0:0 1:0 32 0] [0 0] 0 0
r 10.000000000 _0_ RTR  --- 2 tcp 40 [0 0 0 0] ------- [0:0 1:0 32 0] [0 0] 0 0
s 12.941172739 _1_ RTR  --- 3 message 32 [0 0 0 0] ------- [1:255 -1:255 32 0] 
s 13.000000000 _0_ AGT  --- 4 tcp 40 [0 0 0 0] ------- [0:0 1:0 32 0] [0 0] 0 0
r 13.000000000 _0_ RTR  --- 4 tcp 40 [0 0 0 0] ------- [0:0 1:0 32 0] [0 0] 0 0
s 13.242656084 _0_ RTR  --- 5 message 32 [0 0 0 0] ------- [0:255 -1:255 32 0] 
s 19.000000000 _0_ AGT  --- 6 tcp 40 [0 0 0 0] ------- [0:0 1:0 32 0] [0 0] 0 0
r 19.000000000 _0_ RTR  --- 6 tcp 40 [0 0 0 0] ------- [0:0 1:0 32 0] [0 0] 0 0
s 24.799296167 _1_ RTR  --- 7 message 32 [0 0 0 0] ------- [1:255 -1:255 32 0] 
s 27.719583723 _0_ RTR  --- 8 message 32 [0 0 0 0] ------- [0:255 -1:255 32 0] 
s 31.000000000 _0_ AGT  --- 9 tcp 40 [0 0 0 0] ------- [0:0 1:0 32 0] [0 0] 0 0
r 31.000000000 _0_ RTR  --- 9 tcp 40 [0 0 0 0] ------- [0:0 1:0 32 0] [0 0] 0 0
s 39.083332528 _1_ RTR  --- 10 message 32 [0 0 0 0] ------- [1:255 -1:255 32 0] 
s 40.918940913 _0_ RTR  --- 11 message 32 [0 0 0 0] ------- [0:255 -1:255 32 0] 
M 50.00000 1 (390.00, 385.00, 0.00), (25.00, 20.00), 15.00
s 53.478111556 _1_ RTR  --- 12 message 32 [0 0 0 0] ------- [1:255 -1:255 32 0] 
s 54.709362820 _0_ RTR  --- 13 message 32 [0 0 0 0] ------- [0:255 -1:255 32 0] 
s 55.000000000 _0_ AGT  --- 14 tcp 40 [0 0 0 0] ------- [0:0 1:0 32 0] [0 0] 0 0
r 55.000000000 _0_ RTR  --- 14 tcp 40 [0 0 0 0] ------- [0:0 1:0 32 0] [0 0] 0 0
s 65.134134662 _1_ RTR  --- 15 message 32 [0 0 0 0] ------- [1:255 -1:255 32 0] 
s 69.500212994 _0_ RTR  --- 16 message 32 [0 0 0 0] ------- [0:255 -1:255 32 0] 
r 69.501313756 _1_ RTR  --- 16 message 32 [0 ffffffff 0 800] ------- [0:255 -1:255 32 0] 
s 76.429530123 _1_ RTR  --- 17 message 32 [0 0 0 0] ------- [1:255 -1:255 32 0] 
r 76.430670539 _0_ RTR  --- 17 message 32 [0 ffffffff 1 800] ------- [1:255 -1:255 32 0] 
s 76.430670539 _0_ RTR  --- 2 tcp 80 [0 0 0 0] ------- [0:0 1:0 32 1] [0 0] 0 0
s 76.430670539 _0_ RTR  --- 4 tcp 80 [0 0 0 0] ------- [0:0 1:0 32 1] [0 0] 0 0
D 76.430670539 _0_ IFQ  ARP 2 tcp 80 [0 0 0 800] ------- [0:0 1:0 32 1] [0 0] 0 0
s 76.430670539 _0_ RTR  --- 6 tcp 80 [0 0 0 0] ------- [0:0 1:0 32 1] [0 0] 0 0
D 76.430670539 _0_ IFQ  ARP 4 tcp 80 [0 0 0 800] ------- [0:0 1:0 32 1] [0 0] 0 0
s 76.430670539 _0_ RTR  --- 9 tcp 80 [0 0 0 0] ------- [0:0 1:0 32 1] [0 0] 0 0
D 76.430670539 _0_ RTR  CBK 6 tcp 80 [0 0 0 800] ------- [0:0 1:0 32 1] [0 0] 0 0
D 76.430670539 _0_ RTR  CBK 9 tcp 80 [0 0 0 800] ------- [0:0 1:0 32 1] [0 0] 0 0
s 76.430670539 _0_ RTR  --- 14 tcp 80 [0 0 0 0] ------- [0:0 1:0 32 1] [0 0] 0 0
r 76.438053447 _1_ AGT  --- 14 tcp 80 [13a 1 0 800] ------- [0:0 1:0 32 1] [0 0] 1 0
s 76.438053447 _1_ AGT  --- 18 ack 40 [0 0 0 0] ------- [1:0 0:0 32 0] [0 0] 0 0
r 76.438053447 _1_ RTR  --- 18 ack 40 [0 0 0 0] ------- [1:0 0:0 32 0] [0 0] 0 0
s 76.438053447 _1_ RTR  --- 18 ack 60 [0 0 0 0] ------- [1:0 0:0 32 0] [0 0] 0 0
r 76.446087674 _0_ AGT  --- 18 ack 60 [13a 0 1 800] ------- [1:0 0:0 32 0] [0 0] 1 0
s 76.446087674 _0_ AGT  --- 19 tcp 1040 [0 0 0 0] ------- [0:0 1:0 32 0] [1 0] 0 0
r 76.446087674 _0_ RTR  --- 19 tcp 1040 [0 0 0 0] ------- [0:0 1:0 32 0] [1 0] 0 0
s 76.446087674 _0_ RTR  --- 19 tcp 1060 [0 0 0 0] ------- [0:0 1:0 32 1] [1 0] 0 0
r 76.456372918 _1_ AGT  --- 19 tcp 1060 [13a 1 0 800] ------- [0:0 1:0 32 1] [1 0] 1 0
s 76.456372918 _1_ AGT  --- 20 ack 40 [0 0 0 0] ------- [1:0 0:0 32 0] [1 0] 0 0
r 76.456372918 _1_ RTR  --- 20 ack 40 [0 0 0 0] ------- [1:0 0:0 32 0] [1 0] 0 0
s 76.456372918 _1_ RTR  --- 20 ack 60 [0 0 0 0] ------- [1:0 0:0 32 0] [1 0] 0 0
r 76.458818161 _0_ AGT  --- 20 ack 60 [13a 0 1 800] ------- [1:0 0:0 32 0] [1 0] 1 0
s 76.458818161 _0_ AGT  --- 21 tcp 1040 [0 0 0 0] ------- [0:0 1:0 32 0] [2 0] 0 0
r 76.458818161 _0_ RTR  --- 21 tcp 1040 [0 0 0 0] ------- [0:0 1:0 32 0] [2 0] 0 0
s 76.458818161 _0_ RTR  --- 21 tcp 1060 [0 0 0 0] ------- [0:0 1:0 32 1] [2 0] 0 0
s 76.458818161 _0_ AGT  --- 22 tcp 1040 [0 0 0 0] ------- [0:0 1:0 32 0] [3 0] 0 0
r 76.458818161 _0_ RTR  --- 22 tcp 1040 [0 0 0 0] ------- [0:0 1:0 32 0] [3 0] 0 0
s 76.458818161 _0_ RTR  --- 22 tcp 1060 [0 0 0 0] ------- [0:0 1:0 32 1] [3 0] 0 0
r 76.469003404 _1_ AGT  --- 21 tcp 1060 [13a 1 0 800] ------- [0:0 1:0 32 1] [2 0] 1 0
s 76.469003404 _1_ AGT  --- 23 ack 40 [0 0 0 0] ------- [1:0 0:0 32 0] [2 0] 0 0
r 76.469003404 _1_ RTR  --- 23 ack 40 [0 0 0 0] ------- [1:0 0:0 32 0] [2 0] 0 0
s 76.469003404 _1_ RTR  --- 23 ack 60 [0 0 0 0] ------- [1:0 0:0 32 0] [2 0] 0 0
r 76.471068645 _0_ AGT  --- 23 ack 60 [13a 0 1 800] ------- [1:0 0:0 32 0] [2 0] 1 0
s 76.471068645 _0_ AGT  --- 24 tcp 1040 [0 0 0 0] ------- [0:0 1:0 32 0] [4 0] 0 0
r 76.471068645 _0_ RTR  --- 24 tcp 1040 [0 0 0 0] ------- [0:0 1:0 32 0] [4 0] 0 0
s 76.471068645 _0_ RTR  --- 24 tcp 1060 [0 0 0 0] ------- [0:0 1:0 32 1] [4 0] 0 0
r 76.481253885 _1_ AGT  --- 22 tcp 1060 [13a 1 0 800] ------- [0:0 1:0 32 1] [3 0] 1 0
s 76.481253885 _1_ AGT  --- 25 ack 40 [0 0 0 0] ------- [1:0 0:0 32 0] [3 0] 0 0
r 76.481253885 _1_ RTR  --- 25 ack 40 [0 0 0 0] ------- [1:0 0:0 32 0] [3 0] 0 0
s 76.481253885 _1_ RTR  --- 25 ack 60 [0 0 0 0] ------- [1:0 0:0 32 0] [3 0] 0 0
r 76.483259125 _0_ AGT  --- 25 ack 60 [13a 0 1 800] ------- [1:0 0:0 32 0] [3 0] 1 0
s 76.483259125 _0_ AGT  --- 26 tcp 1040 [0 0 0 0] ------- [0:0 1:0 32 0] [5 0] 0 0
r 76.483259125 _0_ RTR  --- 26 tcp 1040 [0 0 0 0] ------- [0:0 1:0 32 0] [5 0] 0 0
s 76.483259125 _0_ RTR  --- 26 tcp 1060 [0 0 0 0] ------- [0:0 1:0 32 1] [5 0] 0 0
r 76.493304364 _1_ AGT  --- 24 tcp 1060 [13a 1 0 800] ------- [0:0 1:0 32 1] [4 0] 1 0
s 76.493304364 _1_ AGT  --- 27 ack 40 [0 0 0 0] ------- [1:0 0:0 32 0] [4 0] 0 0
r 76.493304364 _1_ RTR  --- 27 ack 40 [0 0 0 0] ------- [1:0 0:0 32 0] [4 0] 0 0
s 76.493304364 _1_ RTR  --- 27 ack 60 [0 0 0 0] ------- [1:0 0:0 32 0] [4 0] 0 0
r 76.495589601 _0_ AGT  --- 27 ack 60 [13a 0 1 800] ------- [1:0 0:0 32 0] [4 0] 1 0
s 76.495589601 _0_ AGT  --- 28 tcp 1040 [0 0 0 0] ------- [0:0 1:0 32 0] [6 0] 0 0
r 76.495589601 _0_ RTR  --- 28 tcp 1040 [0 0 0 0] ------- [0:0 1:0 32 0] [6 0] 0 0
s 76.495589601 _0_ RTR  --- 28 tcp 1060 [0 0 0 0] ------- [0:0 1:0 32 1] [6 0] 0 0
s 76.495589601 _0_ AGT  --- 29 tcp 1040 [0 0 0 0] ------- [0:0 1:0 32 0] [7 0] 0 0
r 76.495589601 _0_ RTR  --- 29 tcp 1040 [0 0 0 0] ------- [0:0 1:0 32 0] [7 0] 0 0
s 76.495589601 _0_ RTR  --- 29 tcp 1060 [0 0 0 0] ------- [0:0 1:0 32 1] [7 0] 0 0
r 76.505894838 _1_ AGT  --- 26 tcp 1060 [13a 1 0 800] ------- [0:0 1:0 32 1] [5 0] 1 0
s 76.505894838 _1_ AGT  --- 30 ack 40 [0 0 0 0] ------- [1:0 0:0 32 0] [5 0] 0 0
r 76.505894838 _1_ RTR  --- 30 ack 40 [0 0 0 0] ------- [1:0 0:0 32 0] [5 0] 0 0
s 76.505894838 _1_ RTR  --- 30 ack 60 [0 0 0 0] ------- [1:0 0:0 32 0] [5 0] 0 0
r 76.507940074 _0_ AGT  --- 30 ack 60 [13a 0 1 800] ------- [1:0 0:0 32 0] [5 0] 1 0
s 76.507940074 _0_ AGT  --- 31 tcp 1040 [0 0 0 0] ------- [0:0 1:0 32 0] [8 0] 0 0
r 76.507940074 _0_ RTR  --- 31 tcp 1040 [0 0 0 0] ------- [0:0 1:0 32 0] [8 0] 0 0
s 76.507940074 _0_ RTR  --- 31 tcp 1060 [0 0 0 0] ------- [0:0 1:0 32 1] [8 0] 0 0
r 76.518465309 _1_ AGT  --- 28 tcp 1060 [13a 1 0 800] ------- [0:0 1:0 32 1] [6 0] 1 0
s 76.518465309 _1_ AGT  --- 32 ack 40 [0 0 0 0] ------- [1:0 0:0 32 0] [6 0] 0 0
r 76.518465309 _1_ RTR  --- 32 ack 40 [0 0 0 0] ------- [1:0 0:0 32 0] [6 0] 0 0
s 76.518465309 _1_ RTR  --- 32 ack 60 [0 0 0 0] ------- [1:0 0:0 32 0] [6 0] 0 0
r 76.528890954 _1_ AGT  --- 29 tcp 1060 [13a 1 0 800] ------- [0:0 1:0 32 1] [7 0] 1 0
s 76.528890954 _1_ AGT  --- 33 ack 40 [0 0 0 0] ------- [1:0 0:0 32 0] [7 0] 0 0
r 76.528890954 _1_ RTR  --- 33 ack 40 [0 0 0 0] ------- [1:0 0:0 32 0] [7 0] 0 0
s 76.528890954 _1_ RTR  --- 33 ack 60 [0 0 0 0] ------- [1:0 0:0 32 0] [7 0] 0 0
r 76.531036186 _0_ AGT  --- 32 ack 60 [13a 0 1 800] ------- [1:0 0:0 32 0] [6 0] 1 0
s 76.531036186 _0_ AGT  --- 34 tcp 1040 [0 0 0 0] ------- [0:0 1:0 32 0] [9 0] 0 0
r 76.531036186 _0_ RTR  --- 34 tcp 1040 [0 0 0 0] ------- [0:0 1:0 32 0] [9 0] 0 0
s 76.531036186 _0_ RTR  --- 34 tcp 1060 [0 0 0 0] ------- [0:0 1:0 32 1] [9 0] 0 0
r 76.533321828 _0_ AGT  --- 33 ack 60 [13a 0 1 800] ------- [1:0 0:0 32 0] [7 0] 1 0
s 76.533321828 _0_ AGT  --- 35 tcp 1040 [0 0 0 0] ------- [0:0 1:0 32 0] [10 0] 0 0
r 76.533321828 _0_ RTR  --- 35 tcp 1040 [0 0 0 0] ------- [0:0 1:0 32 0] [10 0] 0 0
s 76.533321828 _0_ RTR  --- 35 tcp 1060 [0 0 0 0] ------- [0:0 1:0 32 1] [10 0] 0 0
s 76.533321828 _0_ AGT  --- 36 tcp 1040 [0 0 0 0] ------- [0:0 1:0 32 0] [11 0] 0 0
r 76.533321828 _0_ RTR  --- 36 tcp 1040 [0 0 0 0] ------- [0:0 1:0 32 0] [11 0] 0 0
s 76.533321828 _0_ RTR  --- 36 tcp 1060 [0 0 0 0] ------- [0:0 1:0 32 1] [11 0] 0 0
r 76.543407060 _1_ AGT  --- 31 tcp 1060 [13a 1 0 800] ------- [0:0 1:0 32 1] [8 0] 1 0
s 76.543407060 _1_ AGT  --- 37 ack 40 [0 0 0 0] ------- [1:0 0:0 32 0] [8 0] 0 0
r 76.543407060 _1_ RTR  --- 37 ack 40 [0 0 0 0] ------- [1:0 0:0 32 0] [8 0] 0 0
s 76.543407060 _1_ RTR  --- 37 ack 60 [0 0 0 0] ------- [1:0 0:0 32 0] [8 0] 0 0
r 76.545612290 _0_ AGT  --- 37 ack 60 [13a 0 1 800] ------- [1:0 0:0 32 0] [8 0] 1 0
s 76.545612290 _0_ AGT  --- 38 tcp 1040 [0 0 0 0] ------- [0:0 1:0 32 0] [12 0] 0 0
r 76.545612290 _0_ RTR  --- 38 tcp 1040 [0 0 0 0] ------- [0:0 1:0 32 0] [12 0] 0 0
s 76.545612290 _0_ RTR  --- 38 tcp 1060 [0 0 0 0] ------- [0:0 1:0 32 1] [12 0] 0 0
r 76.555697519 _1_ AGT  --- 34 tcp 1060 [13a 1 0 800] ------- [0:0 1:0 32 1] [9 0] 1 0
s 76.555697519 _1_ AGT  --- 39 ack 40 [0 0 0 0] ------- [1:0 0:0 32 0] [9 0] 0 0
r 76.555697519 _1_ RTR  --- 39 ack 40 [0 0 0 0] ------- [1:0 0:0 32 0] [9 0] 0 0
s 76.555697519 _1_ RTR  --- 39 ack 60 [0 0 0 0] ------- [1:0 0:0 32 0] [9 0] 0 0
r 76.565723157 _1_ AGT  --- 35 tcp 1060 [13a 1 0 800] ------- [0:0 1:0 32 1] [10 0] 1 0
s 76.565723157 _1_ AGT  --- 40 ack 40 [0 0 0 0] ------- [1:0 0:0 32 0] [10 0] 0 0
r 76.565723157 _1_ RTR  --- 40 ack 40 [0 0 0 0] ------- [1:0 0:0 32 0] [10 0] 0 0
s 76.565723157 _1_ RTR  --- 40 ack 60 [0 0 0 0] ------- [1:0 0:0 32 0] [10 0] 0 0
r 76.567928383 _0_ AGT  --- 39 ack 60 [13a 0 1 800] ------- [1:0 0:0 32 0] [9 0] 1 0
s 76.567928383 _0_ AGT  --- 41 tcp 1040 [0 0 0 0] ------- [0:0 1:0 32 0] [13 0] 0 0
r 76.567928383 _0_ RTR  --- 41 tcp 1040 [0 0 0 0] ------- [0:0 1:0 32 0] [13 0] 0 0
s 76.567928383 _0_ RTR  --- 41 tcp 1060 [0 0 0 0] ------- [0:0 1:0 32 1] [13 0] 0 0
r 76.570134018 _0_ AGT  --- 40 ack 60 [13a 0 1 800] ------- [1:0 0:0 32 0] [10 0] 1 0
s 76.570134018 _0_ AGT  --- 42 tcp 1040 [0 0 0 0] ------- [0:0 1:0 32 0] [14 0] 0 0
r 76.570134018 _0_ RTR  --- 42 tcp 1040 [0 0 0 0] ------- [0:0 1:0 32 0] [14 0] 0 0
s 76.570134018 _0_ RTR  --- 42 tcp 1060 [0 0 0 0] ------- [0:0 1:0 32 1] [14 0] 0 0
r 76.580279244 _1_ AGT  --- 36 tcp 1060 [13a 1 0 800] ------- [0:0 1:0 32 1] [11 0] 1 0
s 76.580279244 _1_ AGT  --- 43 ack 40 [0 0 0 0] ------- [1:0 0:0 32 0] [11 0] 0 0
r 76.580279244 _1_ RTR  --- 43 ack 40 [0 0 0 0] ------- [1:0 0:0 32 0] [11 0] 0 0
s 76.580279244 _1_ RTR  --- 43 ack 60 [0 0 0 0] ------- [1:0 0:0 32 0] [11 0] 0 0
r 76.582304469 _0_ AGT  --- 43 ack 60 [13a 0 1 800] ------- [1:0 0:0 32 0] [11 0] 1 0
s 76.582304469 _0_ AGT  --- 44 tcp 1040 [0 0 0 0] ------- [0:0 1:0 32 0] [15 0] 0 0
r 76.582304469 _0_ RTR  --- 44 tcp 1040 [0 0 0 0] ------- [0:0 1:0 32 0] [15 0] 0 0
s 76.582304469 _0_ RTR  --- 44 tcp 1060 [0 0 0 0] ------- [0:0 1:0 32 1] [15 0] 0 0
r 76.592429693 _1_ AGT  --- 38 tcp 1060 [13a 1 0 800] ------- [0:0 1:0 32 1] [12 0] 1 0
s 76.592429693 _1_ AGT  --- 45 ack 40 [0 0 0 0] ------- [1:0 0:0 32 0] [12 0] 0 0
r 76.592429693 _1_ RTR  --- 45 ack 40 [0 0 0 0] ------- [1:0 0:0 32 0] [12 0] 0 0
s 76.592429693 _1_ RTR  --- 45 ack 60 [0 0 0 0] ------- [1:0 0:0 32 0] [12 0] 0 0
r 76.594734915 _0_ AGT  --- 45 ack 60 [13a 0 1 800] ------- [1:0 0:0 32 0] [12 0] 1 0
s 76.594734915 _0_ AGT  --- 46 tcp 1040 [0 0 0 0] ------- [0:0 1:0 32 0] [16 0] 0 0
r 76.594734915 _0_ RTR  --- 46 tcp 1040 [0 0 0 0] ------- [0:0 1:0 32 0] [16 0] 0 0
s 76.594734915 _0_ RTR  --- 46 tcp 1060 [0 0 0 0] ------- [0:0 1:0 32 1] [16 0] 0 0
s 76.594734915 _0_ AGT  --- 47 tcp 1040 [0 0 0 0] ------- [0:0 1:0 32 0] [17 0] 0 0
r 76.594734915 _0_ RTR  --- 47 tcp 1040 [0 0 0 0] ------- [0:0 1:0 32 0] [17 0] 0 0
s 76.594734915 _0_ RTR  --- 47 tcp 1060 [0 0 0 0] ------- [0:0 1:0 32 1] [17 0] 0 0
r 76.604820137 _1_ AGT  --- 41 tcp 1060 [13a 1 0 800] ------- [0:0 1:0 32 1] [13 0] 1 0
s 76.604820137 _1_ AGT  --- 48 ack 40 [0 0 0 0] ------- [1:0 0:0 32 0] [13 0] 0 0
r 76.604820137 _1_ RTR  --- 48 ack 40 [0 0 0 0] ------- [1:0 0:0 32 0] [13 0] 0 0
s 76.604820137 _1_ RTR  --- 48 ack 60 [0 0 0 0] ------- [1:0 0:0 32 0] [13 0] 0 0
r 76.606845358 _0_ AGT  --- 48 ack 60 [13a 0 1 800] ------- [1:0 0:0 32 0] [13 0] 1 0
s 76.606845358 _0_ AGT  --- 49 tcp 1040 [0 0 0 0] ------- [0:0 1:0 32 0] [18 0] 0 0
r 76.606845358 _0_ RTR  --- 49 tcp 1040 [0 0 0 0] ------- [0:0 1:0 32 0] [18 0] 0 0
s 76.606845358 _0_ RTR  --- 49 tcp 1060 [0 0 0 0] ------- [0:0 1:0 32 1] [18 0] 0 0
r 76.616970579 _1_ AGT  --- 42 tcp 1060 [13a 1 0 800] ------- [0:0 1:0 32 1] [14 0] 1 0
s 76.616970579 _1_ AGT  --- 50 ack 40 [0 0 0 0] ------- [1:0 0:0 32 0] [14 0] 0 0
r 76.616970579 _1_ RTR  --- 50 ack 40 [0 0 0 0] ------- [1:0 0:0 32 0] [14 0] 0 0
s 76.616970579 _1_ RTR  --- 50 ack 60 [0 0 0 0] ------- [1:0 0:0 32 0] [14 0] 0 0
r 76.626956204 _1_ AGT  --- 44 tcp 1060 [13a 1 0 800] ------- [0:0 1:0 32 1] [15 0] 1 0
s 76.626956204 _1_ AGT  --- 51 ack 40 [0 0 0 0] ------- [1:0 0:0 32 0] [15 0] 0 0
r 76.626956204 _1_ RTR  --- 51 ack 40 [0 0 0 0] ------- [1:0 0:0 32 0] [15 0] 0 0
s 76.626956204 _1_ RTR  --- 51 ack 60 [0 0 0 0] ------- [1:0 0:0 32 0] [15 0] 0 0
r 76.629041421 _0_ AGT  --- 50 ack 60 [13a 0 1 800] ------- [1:0 0:0 32 0] [14 0] 1 0
s 76.629041421 _0_ AGT  --- 52 tcp 1040 [0 0 0 0] ------- [0:0 1:0 32 0] [19 0] 0 0
r 76.629041421 _0_ RTR  --- 52 tcp 1040 [0 0 0 0] ------- [0:0 1:0 32 0] [19 0] 0 0
s 76.629041421 _0_ RTR  --- 52 tcp 1060 [0 0 0 0] ------- [0:0 1:0 32 1] [19 0] 0 0
r 76.639086638 _1_ AGT  --- 46 tcp 1060 [13a 1 0 800] ------- [0:0 1:0 32 1] [16 0] 1 0
s 76.639086638 _1_ AGT  --- 53 ack 40 [0 0 0 0] ------- [1:0 0:0 32 0] [16 0] 0 0
r 76.639086638 _1_ RTR  --- 53 ack 40 [0 0 0 0] ------- [1:0 0:0 32 0] [16 0] 0 0
s 76.639086638 _1_ RTR  --- 53 ack 60 [0 0 0 0] ------- [1:0 0:0 32 0] [16 0] 0 0
r 76.641391854 _0_ AGT  --- 51 ack 60 [13a 0 1 800] ------- [1:0 0:0 32 0] [15 0] 1 0
s 76.641391854 _0_ AGT  --- 54 tcp 1040 [0 0 0 0] ------- [0:0 1:0 32 0] [20 0] 0 0
r 76.641391854 _0_ RTR  --- 54 tcp 1040 [0 0 0 0] ------- [0:0 1:0 32 0] [20 0] 0 0
s 76.641391854 _0_ RTR  --- 54 tcp 1060 [0 0 0 0] ------- [0:0 1:0 32 1] [20 0] 0 0
r 76.651397069 _1_ AGT  --- 47 tcp 1060 [13a 1 0 800] ------- [0:0 1:0 32 1] [17 0] 1 0
s 76.651397069 _1_ AGT  --- 55 ack 40 [0 0 0 0] ------- [1:0 0:0 32 0] [17 0] 0 0
r 76.651397069 _1_ RTR  --- 55 ack 40 [0 0 0 0] ------- [1:0 0:0 32 0] [17 0] 0 0
s 76.651397069 _1_ RTR  --- 55 ack 60 [0 0 0 0] ------- [1:0 0:0 32 0] [17 0] 0 0
r 76.653802283 _0_ AGT  --- 53 ack 60 [13a 0 1 800] ------- [1:0 0:0 32 0] [16 0] 1 0
s 76.653802283 _0_ AGT  --- 56 tcp 1040 [0 0 0 0] ------- [0:0 1:0 32 0] [21 0] 0 0
r 76.653802283 _0_ RTR  --- 56 tcp 1040 [0 0 0 0] ------- [0:0 1:0 32 0] [21 0] 0 0
s 76.653802283 _0_ RTR  --- 56 tcp 1060 [0 0 0 0] ------- [0:0 1:0 32 1] [21 0] 0 0
r 76.663887496 _1_ AGT  --- 49 tcp 1060 [13a 1 0 800] ------- [0:0 1:0 32 1] [18 0] 1 0
s 76.663887496 _1_ AGT  --- 57 ack 40 [0 0 0 0] ------- [1:0 0:0 32 0] [18 0] 0 0
r 76.663887496 _1_ RTR  --- 57 ack 40 [0 0 0 0] ------- [1:0 0:0 32 0] [18 0] 0 0
s 76.663887496 _1_ RTR  --- 57 ack 60 [0 0 0 0] ------- [1:0 0:0 32 0] [18 0] 0 0
r 76.674033112 _1_ AGT  --- 52 tcp 1060 [13a 1 0 800] ------- [0:0 1:0 32 1] [19 0] 1 0
s 76.674033112 _1_ AGT  --- 58 ack 40 [0 0 0 0] ------- [1:0 0:0 32 0] [19 0] 0 0
r 76.674033112 _1_ RTR  --- 58 ack 40 [0 0 0 0] ------- [1:0 0:0 32 0] [19 0] 0 0
s 76.674033112 _1_ RTR  --- 58 ack 60 [0 0 0 0] ------- [1:0 0:0 32 0] [19 0] 0 0
r 76.684038726 _1_ AGT  --- 54 tcp 1060 [13a 1 0 800] ------- [0:0 1:0 32 1] [20 0] 1 0
s 76.684038726 _1_ AGT  --- 59 ack 40 [0 0 0 0] ------- [1:0 0:0 32 0] [20 0] 0 0
r 76.684038726 _1_ RTR  --- 59 ack 40 [0 0 0 0] ------- [1:0 0:0 32 0] [20 0] 0 0
s 76.684038726 _1_ RTR  --- 59 ack 60 [0 0 0 0] ------- [1:0 0:0 32 0] [20 0] 0 0
r 76.686083935 _0_ AGT  --- 55 ack 60 [13a 0 1 800] ------- [1:0 0:0 32 0] [17 0] 1 0
s 76.686083935 _0_ AGT  --- 60 tcp 1040 [0 0 0 0] ------- [0:0 1:0 32 0] [22 0] 0 0
r 76.686083935 _0_ RTR  --- 60 tcp 1040 [0 0 0 0] ------- [0:0 1:0 32 0] [22 0] 0 0
s 76.686083935 _0_ RTR  --- 60 tcp 1060 [0 0 0 0] ------- [0:0 1:0 32 1] [22 0] 0 0
s 76.686083935 _0_ AGT  --- 61 tcp 1040 [0 0 0 0] ------- [0:0 1:0 32 0] [23 0] 0 0
r 76.686083935 _0_ RTR  --- 61 tcp 1040 [0 0 0 0] ------- [0:0 1:0 32 0] [23 0] 0 0
s 76.686083935 _0_ RTR  --- 61 tcp 1060 [0 0 0 0] ------- [0:0 1:0 32 1] [23 0] 0 0
r 76.688169546 _0_ AGT  --- 57 ack 60 [13a 0 1 800] ------- [1:0 0:0 32 0] [18 0] 1 0
s 76.688169546 _0_ AGT  --- 62 tcp 1040 [0 0 0 0] ------- [0:0 1:0 32 0] [24 0] 0 0
r 76.688169546 _0_ RTR  --- 62 tcp 1040 [0 0 0 0] ------- [0:0 1:0 32 0] [24 0] 0 0
s 76.688169546 _0_ RTR  --- 62 tcp 1060 [0 0 0 0] ------- [0:0 1:0 32 1] [24 0] 0 0
r 76.690155157 _0_ AGT  --- 58 ack 60 [13a 0 1 800] ------- [1:0 0:0 32 0] [19 0] 1 0
s 76.690155157 _0_ AGT  --- 63 tcp 1040 [0 0 0 0] ------- [0:0 1:0 32 0] [25 0] 0 0
r 76.690155157 _0_ RTR  --- 63 tcp 1040 [0 0 0 0] ------- [0:0 1:0 32 0] [25 0] 0 0
s 76.690155157 _0_ RTR  --- 63 tcp 1060 [0 0 0 0] ------- [0:0 1:0 32 1] [25 0] 0 0
r 76.692200768 _0_ AGT  --- 59 ack 60 [13a 0 1 800] ------- [1:0 0:0 32 0] [20 0] 1 0
s 76.692200768 _0_ AGT  --- 64 tcp 1040 [0 0 0 0] ------- [0:0 1:0 32 0] [26 0] 0 0
r 76.692200768 _0_ RTR  --- 64 tcp 1040 [0 0 0 0] ------- [0:0 1:0 32 0] [26 0] 0 0
s 76.692200768 _0_ RTR  --- 64 tcp 1060 [0 0 0 0] ------- [0:0 1:0 32 1] [26 0] 0 0
r 76.702245975 _1_ AGT  --- 56 tcp 1060 [13a 1 0 800] ------- [0:0 1:0 32 1] [21 0] 1 0
s 76.702245975 _1_ AGT  --- 65 ack 40 [0 0 0 0] ------- [1:0 0:0 32 0] [21 0] 0 0
r 76.702245975 _1_ RTR  --- 65 ack 40 [0 0 0 0] ------- [1:0 0:0 32 0] [21 0] 0 0
s 76.702245975 _1_ RTR  --- 65 ack 60 [0 0 0 0] ------- [1:0 0:0 32 0] [21 0] 0 0
r 76.704711181 _0_ AGT  --- 65 ack 60 [13a 0 1 800] ------- [1:0 0:0 32 0] [21 0] 1 0
s 76.704711181 _0_ AGT  --- 66 tcp 1040 [0 0 0 0] ------- [0:0 1:0 32 0] [27 0] 0 0
r 76.704711181 _0_ RTR  --- 66 tcp 1040 [0 0 0 0] ------- [0:0 1:0 32 0] [27 0] 0 0
s 76.704711181 _0_ RTR  --- 66 tcp 1060 [0 0 0 0] ------- [0:0 1:0 32 1] [27 0] 0 0
r 76.714836387 _1_ AGT  --- 60 tcp 1060 [13a 1 0 800] ------- [0:0 1:0 32 1] [22 0] 1 0
s 76.714836387 _1_ AGT  --- 67 ack 40 [0 0 0 0] ------- [1:0 0:0 32 0] [22 0] 0 0
r 76.714836387 _1_ RTR  --- 67 ack 40 [0 0 0 0] ------- [1:0 0:0 32 0] [22 0] 0 0
s 76.714836387 _1_ RTR  --- 67 ack 60 [0 0 0 0] ------- [1:0 0:0 32 0] [22 0] 0 0
r 76.724841993 _1_ AGT  --- 61 tcp 1060 [13a 1 0 800] ------- [0:0 1:0 32 1] [23 0] 1 0
s 76.724841993 _1_ AGT  --- 68 ack 40 [0 0 0 0] ------- [1:0 0:0 32 0] [23 0] 0 0
r 76.724841993 _1_ RTR  --- 68 ack 40 [0 0 0 0] ------- [1:0 0:0 32 0] [23 0] 0 0
s 76.724841993 _1_ RTR  --- 68 ack 60 [0 0 0 0] ------- [1:0 0:0 32 0] [23 0] 0 0
r 76.734847597 _1_ AGT  --- 62 tcp 1060 [13a 1 0 800] ------- [0:0 1:0 32 1] [24 0] 1 0
s 76.734847597 _1_ AGT  --- 69 ack 40 [0 0 0 0] ------- [1:0 0:0 32 0] [24 0] 0 0
r 76.734847597 _1_ RTR  --- 69 ack 40 [0 0 0 0] ------- [1:0 0:0 32 0] [24 0] 0 0
s 76.734847597 _1_ RTR  --- 69 ack 60 [0 0 0 0] ------- [1:0 0:0 32 0] [24 0] 0 0
r 76.744893198 _1_ AGT  --- 63 tcp 1060 [13a 1 0 800] ------- [0:0 1:0 32 1] [25 0] 1 0
s 76.744893198 _1_ AGT  --- 70 ack 40 [0 0 0 0] ------- [1:0 0:0 32 0] [25 0] 0 0
r 76.744893198 _1_ RTR  --- 70 ack 40 [0 0 0 0] ------- [1:0 0:0 32 0] [25 0] 0 0
s 76.744893198 _1_ RTR  --- 70 ack 60 [0 0 0 0] ------- [1:0 0:0 32 0] [25 0] 0 0
r 76.747078398 _0_ AGT  --- 67 ack 60 [13a 0 1 800] ------- [1:0 0:0 32 0] [22 0] 1 0
s 76.747078398 _0_ AGT  --- 71 tcp 1040 [0 0 0 0] ------- [0:0 1:0 32 0] [28 0] 0 0
r 76.747078398 _0_ RTR  --- 71 tcp 1040 [0 0 0 0] ------- [0:0 1:0 32 0] [28 0] 0 0
s 76.747078398 _0_ RTR  --- 71 tcp 1060 [0 0 0 0] ------- [0:0 1:0 32 1] [28 0] 0 0
r 76.749083997 _0_ AGT  --- 68 ack 60 [13a 0 1 800] ------- [1:0 0:0 32 0] [23 0] 1 0
s 76.749083997 _0_ AGT  --- 72 tcp 1040 [0 0 0 0] ------- [0:0 1:0 32 0] [29 0] 0 0
r 76.749083997 _0_ RTR  --- 72 tcp 1040 [0 0 0 0] ------- [0:0 1:0 32 0] [29 0] 0 0
s 76.749083997 _0_ RTR  --- 72 tcp 1060 [0 0 0 0] ------- [0:0 1:0 32 1] [29 0] 0 0
s 76.749083997 _0_ AGT  --- 73 tcp 1040 [0 0 0 0] ------- [0:0 1:0 32 0] [30 0] 0 0
r 76.749083997 _0_ RTR  --- 73 tcp 1040 [0 0 0 0] ------- [0:0 1:0 32 0] [30 0] 0 0
s 76.749083997 _0_ RTR  --- 73 tcp 1060 [0 0 0 0] ------- [0:0 1:0 32 1] [30 0] 0 0
r 76.751089596 _0_ AGT  --- 69 ack 60 [13a 0 1 800] ------- [1:0 0:0 32 0] [24 0] 1 0
s 76.751089596 _0_ AGT  --- 74 tcp 1040 [0 0 0 0] ------- [0:0 1:0 32 0] [31 0] 0 0
r 76.751089596 _0_ RTR  --- 74 tcp 1040 [0 0 0 0] ------- [0:0 1:0 32 0] [31 0] 0 0
s 76.751089596 _0_ RTR  --- 74 tcp 1060 [0 0 0 0] ------- [0:0 1:0 32 1] [31 0] 0 0
r 76.761114795 _1_ AGT  --- 64 tcp 1060 [13a 1 0 800] ------- [0:0 1:0 32 1] [26 0] 1 0
s 76.761114795 _1_ AGT  --- 75 ack 40 [0 0 0 0] ------- [1:0 0:0 32 0] [26 0] 0 0
r 76.761114795 _1_ RTR  --- 75 ack 40 [0 0 0 0] ------- [1:0 0:0 32 0] [26 0] 0 0
s 76.761114795 _1_ RTR  --- 75 ack 60 [0 0 0 0] ------- [1:0 0:0 32 0] [26 0] 0 0
r 76.763459992 _0_ AGT  --- 70 ack 60 [13a 0 1 800] ------- [1:0 0:0 32 0] [25 0] 1 0
s 76.763459992 _0_ AGT  --- 76 tcp 1040 [0 0 0 0] ------- [0:0 1:0 32 0] [32 0] 0 0
r 76.763459992 _0_ RTR  --- 76 tcp 1040 [0 0 0 0] ------- [0:0 1:0 32 0] [32 0] 0 0
s 76.763459992 _0_ RTR  --- 76 tcp 1060 [0 0 0 0] ------- [0:0 1:0 32 1] [32 0] 0 0
r 76.773545189 _1_ AGT  --- 66 tcp 1060 [13a 1 0 800] ------- [0:0 1:0 32 1] [27 0] 1 0
s 76.773545189 _1_ AGT  --- 77 ack 40 [0 0 0 0] ------- [1:0 0:0 32 0] [27 0] 0 0
r 76.773545189 _1_ RTR  --- 77 ack 40 [0 0 0 0] ------- [1:0 0:0 32 0] [27 0] 0 0
s 76.773545189 _1_ RTR  --- 77 ack 60 [0 0 0 0] ------- [1:0 0:0 32 0] [27 0] 0 0
r 76.775830384 _0_ AGT  --- 75 ack 60 [13a 0 1 800] ------- [1:0 0:0 32 0] [26 0] 1 0
s 76.775830384 _0_ AGT  --- 78 tcp 1040 [0 0 0 0] ------- [0:0 1:0 32 0] [33 0] 0 0
r 76.775830384 _0_ RTR  --- 78 tcp 1040 [0 0 0 0] ------- [0:0 1:0 32 0] [33 0] 0 0
s 76.775830384 _0_ RTR  --- 78 tcp 1060 [0 0 0 0] ------- [0:0 1:0 32 1] [33 0] 0 0
r 76.786015579 _1_ AGT  --- 71 tcp 1060 [13a 1 0 800] ------- [0:0 1:0 32 1] [28 0] 1 0
s 76.786015579 _1_ AGT  --- 79 ack 40 [0 0 0 0] ------- [1:0 0:0 32 0] [28 0] 0 0
r 76.786015579 _1_ RTR  --- 79 ack 40 [0 0 0 0] ------- [1:0 0:0 32 0] [28 0] 0 0
s 76.786015579 _1_ RTR  --- 79 ack 60 [0 0 0 0] ------- [1:0 0:0 32 0] [28 0] 0 0
r 76.788140773 _0_ AGT  --- 77 ack 60 [13a 0 1 800] ------- [1:0 0:0 32 0] [27 0] 1 0
s 76.788140773 _0_ AGT  --- 80 tcp 1040 [0 0 0 0] ------- [0:0 1:0 32 0] [34 0] 0 0
r 76.788140773 _0_ RTR  --- 80 tcp 1040 [0 0 0 0] ------- [0:0 1:0 32 0] [34 0] 0 0
s 76.788140773 _0_ RTR  --- 80 tcp 1060 [0 0 0 0] ------- [0:0 1:0 32 1] [34 0] 0 0
r 76.798185966 _1_ AGT  --- 72 tcp 1060 [13a 1 0 800] ------- [0:0 1:0 32 1] [29 0] 1 0
s 76.798185966 _1_ AGT  --- 81 ack 40 [0 0 0 0] ------- [1:0 0:0 32 0] [29 0] 0 0
r 76.798185966 _1_ RTR  --- 81 ack 40 [0 0 0 0] ------- [1:0 0:0 32 0] [29 0] 0 0
s 76.798185966 _1_ RTR  --- 81 ack 60 [0 0 0 0] ------- [1:0 0:0 32 0] [29 0] 0 0
r 76.808351555 _1_ AGT  --- 73 tcp 1060 [13a 1 0 800] ------- [0:0 1:0 32 1] [30 0] 1 0
s 76.808351555 _1_ AGT  --- 82 ack 40 [0 0 0 0] ------- [1:0 0:0 32 0] [30 0] 0 0
r 76.808351555 _1_ RTR  --- 82 ack 40 [0 0 0 0] ------- [1:0 0:0 32 0] [30 0] 0 0
s 76.808351555 _1_ RTR  --- 82 ack 60 [0 0 0 0] ------- [1:0 0:0 32 0] [30 0] 0 0
r 76.818477142 _1_ AGT  --- 74 tcp 1060 [13a 1 0 800] ------- [0:0 1:0 32 1] [31 0] 1 0
s 76.818477142 _1_ AGT  --- 83 ack 40 [0 0 0 0] ------- [1:0 0:0 32 0] [31 0] 0 0
r 76.818477142 _1_ RTR  --- 83 ack 40 [0 0 0 0] ------- [1:0 0:0 32 0] [31 0] 0 0
s 76.818477142 _1_ RTR  --- 83 ack 60 [0 0 0 0] ------- [1:0 0:0 32 0] [31 0] 0 0
r 76.820642331 _0_ AGT  --- 79 ack 60 [13a 0 1 800] ------- [1:0 0:0 32 0] [28 0] 1 0
s 76.820642331 _0_ AGT  --- 84 tcp 1040 [0 0 0 0] ------- [0:0 1:0 32 0] [35 0] 0 0
r 76.820642331 _0_ RTR  --- 84 tcp 1040 [0 0 0 0] ------- [0:0 1:0 32 0] [35 0] 0 0
s 76.820642331 _0_ RTR  --- 84 tcp 1060 [0 0 0 0] ------- [0:0 1:0 32 1] [35 0] 0 0
r 76.822627915 _0_ AGT  --- 81 ack 60 [13a 0 1 800] ------- [1:0 0:0 32 0] [29 0] 1 0
s 76.822627915 _0_ AGT  --- 85 tcp 1040 [0 0 0 0] ------- [0:0 1:0 32 0] [36 0] 0 0
r 76.822627915 _0_ RTR  --- 85 tcp 1040 [0 0 0 0] ------- [0:0 1:0 32 0] [36 0] 0 0
s 76.822627915 _0_ RTR  --- 85 tcp 1060 [0 0 0 0] ------- [0:0 1:0 32 1] [36 0] 0 0
r 76.832693103 _1_ AGT  --- 76 tcp 1060 [13a 1 0 800] ------- [0:0 1:0 32 1] [32 0] 1 0
s 76.832693103 _1_ AGT  --- 86 ack 40 [0 0 0 0] ------- [1:0 0:0 32 0] [32 0] 0 0
r 76.832693103 _1_ RTR  --- 86 ack 40 [0 0 0 0] ------- [1:0 0:0 32 0] [32 0] 0 0
s 76.832693103 _1_ RTR  --- 86 ack 60 [0 0 0 0] ------- [1:0 0:0 32 0] [32 0] 0 0
r 76.842678685 _1_ AGT  --- 78 tcp 1060 [13a 1 0 800] ------- [0:0 1:0 32 1] [33 0] 1 0
s 76.842678685 _1_ AGT  --- 87 ack 40 [0 0 0 0] ------- [1:0 0:0 32 0] [33 0] 0 0
r 76.842678685 _1_ RTR  --- 87 ack 40 [0 0 0 0] ------- [1:0 0:0 32 0] [33 0] 0 0
s 76.842678685 _1_ RTR  --- 87 ack 60 [0 0 0 0] ------- [1:0 0:0 32 0] [33 0] 0 0
r 76.844703871 _0_ AGT  --- 82 ack 60 [13a 0 1 800] ------- [1:0 0:0 32 0] [30 0] 1 0
s 76.844703871 _0_ AGT  --- 88 tcp 1040 [0 0 0 0] ------- [0:0 1:0 32 0] [37 0] 0 0
r 76.844703871 _0_ RTR  --- 88 tcp 1040 [0 0 0 0] ------- [0:0 1:0 32 0] [37 0] 0 0
s 76.844703871 _0_ RTR  --- 88 tcp 1060 [0 0 0 0] ------- [0:0 1:0 32 1] [37 0] 0 0
r 76.855209055 _1_ AGT  --- 80 tcp 1060 [13a 1 0 800] ------- [0:0 1:0 32 1] [34 0] 1 0
s 76.855209055 _1_ AGT  --- 89 ack 40 [0 0 0 0] ------- [1:0 0:0 32 0] [34 0] 0 0
r 76.855209055 _1_ RTR  --- 89 ack 40 [0 0 0 0] ------- [1:0 0:0 32 0] [34 0] 0 0
s 76.855209055 _1_ RTR  --- 89 ack 60 [0 0 0 0] ------- [1:0 0:0 32 0] [34 0] 0 0
r 76.857254238 _0_ AGT  --- 83 ack 60 [13a 0 1 800] ------- [1:0 0:0 32 0] [31 0] 1 0
s 76.857254238 _0_ AGT  --- 90 tcp 1040 [0 0 0 0] ------- [0:0 1:0 32 0] [38 0] 0 0
r 76.857254238 _0_ RTR  --- 90 tcp 1040 [0 0 0 0] ------- [0:0 1:0 32 0] [38 0] 0 0
s 76.857254238 _0_ RTR  --- 90 tcp 1060 [0 0 0 0] ------- [0:0 1:0 32 1] [38 0] 0 0
s 76.857254238 _0_ AGT  --- 91 tcp 1040 [0 0 0 0] ------- [0:0 1:0 32 0] [39 0] 0 0
r 76.857254238 _0_ RTR  --- 91 tcp 1040 [0 0 0 0] ------- [0:0 1:0 32 0] [39 0] 0 0
s 76.857254238 _0_ RTR  --- 91 tcp 1060 [0 0 0 0] ------- [0:0 1:0 32 1] [39 0] 0 0
r 76.867779421 _1_ AGT  --- 84 tcp 1060 [13a 1 0 800] ------- [0:0 1:0 32 1] [35 0] 1 0
s 76.867779421 _1_ AGT  --- 92 ack 40 [0 0 0 0] ------- [1:0 0:0 32 0] [35 0] 0 0
r 76.867779421 _1_ RTR  --- 92 ack 40 [0 0 0 0] ------- [1:0 0:0 32 0] [35 0] 0 0
s 76.867779421 _1_ RTR  --- 92 ack 60 [0 0 0 0] ------- [1:0 0:0 32 0] [35 0] 0 0
r 76.869824602 _0_ AGT  --- 86 ack 60 [13a 0 1 800] ------- [1:0 0:0 32 0] [32 0] 1 0
s 76.869824602 _0_ AGT  --- 93 tcp 1040 [0 0 0 0] ------- [0:0 1:0 32 0] [40 0] 0 0
r 76.869824602 _0_ RTR  --- 93 tcp 1040 [0 0 0 0] ------- [0:0 1:0 32 0] [40 0] 0 0
s 76.869824602 _0_ RTR  --- 93 tcp 1060 [0 0 0 0] ------- [0:0 1:0 32 1] [40 0] 0 0
r 76.879989783 _1_ AGT  --- 85 tcp 1060 [13a 1 0 800] ------- [0:0 1:0 32 1] [36 0] 1 0
s 76.879989783 _1_ AGT  --- 94 ack 40 [0 0 0 0] ------- [1:0 0:0 32 0] [36 0] 0 0
r 76.879989783 _1_ RTR  --- 94 ack 40 [0 0 0 0] ------- [1:0 0:0 32 0] [36 0] 0 0
s 76.879989783 _1_ RTR  --- 94 ack 60 [0 0 0 0] ------- [1:0 0:0 32 0] [36 0] 0 0
r 76.890115356 _1_ AGT  --- 88 tcp 1060 [13a 1 0 800] ------- [0:0 1:0 32 1] [37 0] 1 0
s 76.890115356 _1_ AGT  --- 95 ack 40 [0 0 0 0] ------- [1:0 0:0 32 0] [37 0] 0 0
r 76.890115356 _1_ RTR  --- 95 ack 40 [0 0 0 0] ------- [1:0 0:0 32 0] [37 0] 0 0
s 76.890115356 _1_ RTR  --- 95 ack 60 [0 0 0 0] ------- [1:0 0:0 32 0] [37 0] 0 0
r 76.892320534 _0_ AGT  --- 87 ack 60 [13a 0 1 800] ------- [1:0 0:0 32 0] [33 0] 1 0
s 76.892320534 _0_ AGT  --- 96 tcp 1040 [0 0 0 0] ------- [0:0 1:0 32 0] [41 0] 0 0
r 76.892320534 _0_ RTR  --- 96 tcp 1040 [0 0 0 0] ------- [0:0 1:0 32 0] [41 0] 0 0
s 76.892320534 _0_ RTR  --- 96 tcp 1060 [0 0 0 0] ------- [0:0 1:0 32 1] [41 0] 0 0
r 76.902345712 _1_ AGT  --- 90 tcp 1060 [13a 1 0 800] ------- [0:0 1:0 32 1] [38 0] 1 0
s 76.902345712 _1_ AGT  --- 97 ack 40 [0 0 0 0] ------- [1:0 0:0 32 0] [38 0] 0 0
r 76.902345712 _1_ RTR  --- 97 ack 40 [0 0 0 0] ------- [1:0 0:0 32 0] [38 0] 0 0
s 76.902345712 _1_ RTR  --- 97 ack 60 [0 0 0 0] ------- [1:0 0:0 32 0] [38 0] 0 0
r 76.912431280 _1_ AGT  --- 91 tcp 1060 [13a 1 0 800] ------- [0:0 1:0 32 1] [39 0] 1 0
s 76.912431280 _1_ AGT  --- 98 ack 40 [0 0 0 0] ------- [1:0 0:0 32 0] [39 0] 0 0
r 76.912431280 _1_ RTR  --- 98 ack 40 [0 0 0 0] ------- [1:0 0:0 32 0] [39 0] 0 0
s 76.912431280 _1_ RTR  --- 98 ack 60 [0 0 0 0] ------- [1:0 0:0 32 0] [39 0] 0 0
r 76.922596846 _1_ AGT  --- 93 tcp 1060 [13a 1 0 800] ------- [0:0 1:0 32 1] [40 0] 1 0
s 76.922596846 _1_ AGT  --- 99 ack 40 [0 0 0 0] ------- [1:0 0:0 32 0] [40 0] 0 0
r 76.922596846 _1_ RTR  --- 99 ack 40 [0 0 0 0] ------- [1:0 0:0 32 0] [40 0] 0 0
s 76.922596846 _1_ RTR  --- 99 ack 60 [0 0 0 0] ------- [1:0 0:0 32 0] [40 0] 0 0
r 76.932582410 _1_ AGT  --- 96 tcp 1060 [13a 1 0 800] ------- [0:0 1:0 32 1] [41 0] 1 0
s 76.932582410 _1_ AGT  --- 100 ack 40 [0 0 0 0] ------- [1:0 0:0 32 0] [41 0] 0 0
r 76.932582410 _1_ RTR  --- 100 ack 40 [0 0 0 0] ------- [1:0 0:0 32 0] [41 0] 0 0